Program Version,EnergyPlus, Version 23.2.0-7636e6b3e9, YMD=2024.04.10 11:29
1,5,Environment Title[],Latitude[deg],Longitude[deg],Time Zone[],Elevation[m]
2,8,Day of Simulation[],Month[],Day of Month[],DST Indicator[1=yes 0=no],Hour[],StartMinute[],EndMinute[],DayType
3,5,Cumulative Day of Simulation[],Month[],Day of Month[],DST Indicator[1=yes 0=no],DayType  ! When Daily Meters Requested
4,2,Cumulative Days of Simulation[],Month[]  ! When Monthly Meters Requested
5,1,Cumulative Days of Simulation[] ! When Run Period Meters Requested
6,1,Calendar Year of Simulation[] ! When Annual Meters Requested
198,1,InteriorLights:Electricity [J] !Hourly
1030,1,InteriorEquipment:Electricity [J] !Hourly
End of Data Dictionary
1,RUNPERIOD 1,  27.97, -82.53,  -5.00,   6.00
2,1, 1, 1, 0, 1, 0.00,60.00,Holiday
198,36464788.34797145
1030,746122165.6661774
2,1, 1, 1, 0, 2, 0.00,60.00,Holiday
198,36464788.34797145
1030,746122165.6661774
2,1, 1, 1, 0, 3, 0.00,60.00,Holiday
198,36464788.34797145
1030,746122165.6661774
2,1, 1, 1, 0, 4, 0.00,60.00,Holiday
198,36464788.34797145
1030,746122165.6661774
2,1, 1, 1, 0, 5, 0.00,60.00,Holiday
198,36464788.34797145
1030,746122165.6661774
2,1, 1, 1, 0, 6, 0.00,60.00,Holiday
198,36464788.34797145
1030,746122165.6661774
2,1, 1, 1, 0, 7, 0.00,60.00,Holiday
198,48092070.92212643
1030,824394452.0555365
2,1, 1, 1, 0, 8, 0.00,60.00,Holiday
198,50969814.59644767
1030,824394452.0555365
2,1, 1, 1, 0, 9, 0.00,60.00,Holiday
198,46694442.701409526
1030,824394452.0555365
2,1, 1, 1, 0,10, 0.00,60.00,Holiday
198,44839992.39926316
1030,824394452.0555365
2,1, 1, 1, 0,11, 0.00,60.00,Holiday
198,44739321.00903879
1030,824394452.0555365
2,1, 1, 1, 0,12, 0.00,60.00,Holiday
198,44734127.06664909
1030,824394452.0555365
2,1, 1, 1, 0,13, 0.00,60.00,Holiday
198,44734127.06664909
1030,824394452.0555365
2,1, 1, 1, 0,14, 0.00,60.00,Holiday
198,44734127.06664909
1030,824394452.0555365
2,1, 1, 1, 0,15, 0.00,60.00,Holiday
198,44736588.24986881
1030,824394452.0555365
2,1, 1, 1, 0,16, 0.00,60.00,Holiday
198,44889986.42675064
1030,824394452.0555365
2,1, 1, 1, 0,17, 0.00,60.00,Holiday
198,46585832.704148114
1030,824394452.0555365
2,1, 1, 1, 0,18, 0.00,60.00,Holiday
198,51406553.66143213
1030,824394452.0555365
2,1, 1, 1, 0,19, 0.00,60.00,Holiday
198,41707937.258317545
1030,746122165.6661774
2,1, 1, 1, 0,20, 0.00,60.00,Holiday
198,36464788.34797145
1030,746122165.6661774
2,1, 1, 1, 0,21, 0.00,60.00,Holiday
198,36464788.34797145
1030,746122165.6661774
2,1, 1, 1, 0,22, 0.00,60.00,Holiday
198,36464788.34797145
1030,746122165.6661774
2,1, 1, 1, 0,23, 0.00,60.00,Holiday
198,36464788.34797145
1030,746122165.6661774
2,1, 1, 1, 0,24, 0.00,60.00,Holiday
198,36464788.34797145
1030,746122165.6661774
2,2, 1, 2, 0, 1, 0.00,60.00,Monday
198,36464788.34797145
1030,836730825.2177298
2,2, 1, 2, 0, 2, 0.00,60.00,Monday
198,36464788.34797145
1030,836730825.2177298
2,2, 1, 2, 0, 3, 0.00,60.00,Monday
198,36464788.34797145
1030,836730825.2177298
2,2, 1, 2, 0, 4, 0.00,60.00,Monday
198,36464788.34797145
1030,836730825.2177298
2,2, 1, 2, 0, 5, 0.00,60.00,Monday
198,36464788.34797145
1030,836730825.2177298
2,2, 1, 2, 0, 6, 0.00,60.00,Monday
198,37975250.63110626
1030,836730825.2177298
2,2, 1, 2, 0, 7, 0.00,60.00,Monday
198,87445560.3280437
1030,941093873.736875
2,2, 1, 2, 0, 8, 0.00,60.00,Monday
198,304143705.47792375
1030,941093873.736875
2,2, 1, 2, 0, 9, 0.00,60.00,Monday
198,839614218.4774357
1030,1524590982.1435688
2,2, 1, 2, 0,10, 0.00,60.00,Monday
198,807578768.0249306
1030,1524590982.1435688
2,2, 1, 2, 0,11, 0.00,60.00,Monday
198,805214287.1996835
1030,1524590982.1435688
2,2, 1, 2, 0,12, 0.00,60.00,Monday
198,805214287.1996835
1030,1524590982.1435688
2,2, 1, 2, 0,13, 0.00,60.00,Monday
198,805214287.1996835
1030,1407891560.4622302
2,2, 1, 2, 0,14, 0.00,60.00,Monday
198,805214287.1996835
1030,1524590982.1435688
2,2, 1, 2, 0,15, 0.00,60.00,Monday
198,805214287.1996835
1030,1524590982.1435688
2,2, 1, 2, 0,16, 0.00,60.00,Monday
198,807771135.5367076
1030,1524590982.1435688
2,2, 1, 2, 0,17, 0.00,60.00,Monday
198,827007203.7846172
1030,1524590982.1435688
2,2, 1, 2, 0,18, 0.00,60.00,Monday
198,513962817.03111905
1030,1057793295.4182141
2,2, 1, 2, 0,19, 0.00,60.00,Monday
198,312092162.51627046
1030,941093873.736875
2,2, 1, 2, 0,20, 0.00,60.00,Monday
198,312092162.51627046
1030,941093873.736875
2,2, 1, 2, 0,21, 0.00,60.00,Monday
198,208061441.6775136
1030,941093873.736875
2,2, 1, 2, 0,22, 0.00,60.00,Monday
198,208061441.6775136
1030,941093873.736875
2,2, 1, 2, 0,23, 0.00,60.00,Monday
198,104030720.8387568
1030,941093873.736875
2,2, 1, 2, 0,24, 0.00,60.00,Monday
198,52015360.4193784
1030,941093873.736875
2,3, 1, 3, 0, 1, 0.00,60.00,Tuesday
198,41707937.258317545
1030,836730825.2177298
2,3, 1, 3, 0, 2, 0.00,60.00,Tuesday
198,36464788.34797145
1030,836730825.2177298
2,3, 1, 3, 0, 3, 0.00,60.00,Tuesday
198,36464788.34797145
1030,836730825.2177298
2,3, 1, 3, 0, 4, 0.00,60.00,Tuesday
198,36464788.34797145
1030,836730825.2177298
2,3, 1, 3, 0, 5, 0.00,60.00,Tuesday
198,36464788.34797145
1030,836730825.2177298
2,3, 1, 3, 0, 6, 0.00,60.00,Tuesday
198,37975250.63110626
1030,836730825.2177298
2,3, 1, 3, 0, 7, 0.00,60.00,Tuesday
198,87445560.3280437
1030,941093873.736875
2,3, 1, 3, 0, 8, 0.00,60.00,Tuesday
198,293204333.6796444
1030,941093873.736875
2,3, 1, 3, 0, 9, 0.00,60.00,Tuesday
198,806549647.8846607
1030,1524590982.1435688
2,3, 1, 3, 0,10, 0.00,60.00,Tuesday
198,805214287.1996835
1030,1524590982.1435688
2,3, 1, 3, 0,11, 0.00,60.00,Tuesday
198,805214287.1996835
1030,1524590982.1435688
2,3, 1, 3, 0,12, 0.00,60.00,Tuesday
198,805214287.1996835
1030,1524590982.1435688
2,3, 1, 3, 0,13, 0.00,60.00,Tuesday
198,805214287.1996835
1030,1407891560.4622302
2,3, 1, 3, 0,14, 0.00,60.00,Tuesday
198,805214287.1996835
1030,1524590982.1435688
2,3, 1, 3, 0,15, 0.00,60.00,Tuesday
198,805214287.1996835
1030,1524590982.1435688
2,3, 1, 3, 0,16, 0.00,60.00,Tuesday
198,806323301.1902714
1030,1524590982.1435688
2,3, 1, 3, 0,17, 0.00,60.00,Tuesday
198,832734201.4332554
1030,1524590982.1435688
2,3, 1, 3, 0,18, 0.00,60.00,Tuesday
198,513311566.44840217
1030,1057793295.4182141
2,3, 1, 3, 0,19, 0.00,60.00,Tuesday
198,312092162.51627046
1030,941093873.736875
2,3, 1, 3, 0,20, 0.00,60.00,Tuesday
198,312092162.51627046
1030,941093873.736875
2,3, 1, 3, 0,21, 0.00,60.00,Tuesday
198,208061441.6775136
1030,941093873.736875
2,3, 1, 3, 0,22, 0.00,60.00,Tuesday
198,208061441.6775136
1030,941093873.736875
2,3, 1, 3, 0,23, 0.00,60.00,Tuesday
198,104030720.8387568
1030,941093873.736875
2,3, 1, 3, 0,24, 0.00,60.00,Tuesday
198,52015360.4193784
1030,941093873.736875
2,4, 1, 4, 0, 1, 0.00,60.00,Wednesday
198,41707937.258317545
1030,836730825.2177298
2,4, 1, 4, 0, 2, 0.00,60.00,Wednesday
198,36464788.34797145
1030,836730825.2177298
2,4, 1, 4, 0, 3, 0.00,60.00,Wednesday
198,36464788.34797145
1030,836730825.2177298
2,4, 1, 4, 0, 4, 0.00,60.00,Wednesday
198,36464788.34797145
1030,836730825.2177298
2,4, 1, 4, 0, 5, 0.00,60.00,Wednesday
198,36464788.34797145
1030,836730825.2177298
2,4, 1, 4, 0, 6, 0.00,60.00,Wednesday
198,37975250.63110626
1030,836730825.2177298
2,4, 1, 4, 0, 7, 0.00,60.00,Wednesday
198,87445560.3280437
1030,941093873.736875
2,4, 1, 4, 0, 8, 0.00,60.00,Wednesday
198,298480746.9626105
1030,941093873.736875
2,4, 1, 4, 0, 9, 0.00,60.00,Wednesday
198,819881056.9087192
1030,1524590982.1435688
2,4, 1, 4, 0,10, 0.00,60.00,Wednesday
198,805214287.1996835
1030,1524590982.1435688
2,4, 1, 4, 0,11, 0.00,60.00,Wednesday
198,805214287.1996835
1030,1524590982.1435688
2,4, 1, 4, 0,12, 0.00,60.00,Wednesday
198,805214287.1996835
1030,1524590982.1435688
2,4, 1, 4, 0,13, 0.00,60.00,Wednesday
198,805214287.1996835
1030,1407891560.4622302
2,4, 1, 4, 0,14, 0.00,60.00,Wednesday
198,805214287.1996835
1030,1524590982.1435688
2,4, 1, 4, 0,15, 0.00,60.00,Wednesday
198,805214287.1996835
1030,1524590982.1435688
2,4, 1, 4, 0,16, 0.00,60.00,Wednesday
198,805214287.1996835
1030,1524590982.1435688
2,4, 1, 4, 0,17, 0.00,60.00,Wednesday
198,808395383.2524734
1030,1524590982.1435688
2,4, 1, 4, 0,18, 0.00,60.00,Wednesday
198,499192006.7025194
1030,1057793295.4182141
2,4, 1, 4, 0,19, 0.00,60.00,Wednesday
198,312092162.51627046
1030,941093873.736875
2,4, 1, 4, 0,20, 0.00,60.00,Wednesday
198,312092162.51627046
1030,941093873.736875
2,4, 1, 4, 0,21, 0.00,60.00,Wednesday
198,208061441.6775136
1030,941093873.736875
2,4, 1, 4, 0,22, 0.00,60.00,Wednesday
198,208061441.6775136
1030,941093873.736875
2,4, 1, 4, 0,23, 0.00,60.00,Wednesday
198,104030720.8387568
1030,941093873.736875
2,4, 1, 4, 0,24, 0.00,60.00,Wednesday
198,52015360.4193784
1030,941093873.736875
2,5, 1, 5, 0, 1, 0.00,60.00,Thursday
198,41707937.258317545
1030,836730825.2177298
2,5, 1, 5, 0, 2, 0.00,60.00,Thursday
198,36464788.34797145
1030,836730825.2177298
2,5, 1, 5, 0, 3, 0.00,60.00,Thursday
198,36464788.34797145
1030,836730825.2177298
2,5, 1, 5, 0, 4, 0.00,60.00,Thursday
198,36464788.34797145
1030,836730825.2177298
2,5, 1, 5, 0, 5, 0.00,60.00,Thursday
198,36464788.34797145
1030,836730825.2177298
2,5, 1, 5, 0, 6, 0.00,60.00,Thursday
198,37975250.63110626
1030,836730825.2177298
2,5, 1, 5, 0, 7, 0.00,60.00,Thursday
198,87445560.3280437
1030,941093873.736875
2,5, 1, 5, 0, 8, 0.00,60.00,Thursday
198,293003593.9867028
1030,941093873.736875
2,5, 1, 5, 0, 9, 0.00,60.00,Thursday
198,810906508.5649455
1030,1524590982.1435688
2,5, 1, 5, 0,10, 0.00,60.00,Thursday
198,805291882.9994392
1030,1524590982.1435688
2,5, 1, 5, 0,11, 0.00,60.00,Thursday
198,805214287.1996835
1030,1524590982.1435688
2,5, 1, 5, 0,12, 0.00,60.00,Thursday
198,805214287.1996835
1030,1524590982.1435688
2,5, 1, 5, 0,13, 0.00,60.00,Thursday
198,805214287.1996835
1030,1407891560.4622302
2,5, 1, 5, 0,14, 0.00,60.00,Thursday
198,805214287.1996835
1030,1524590982.1435688
2,5, 1, 5, 0,15, 0.00,60.00,Thursday
198,805214287.1996835
1030,1524590982.1435688
2,5, 1, 5, 0,16, 0.00,60.00,Thursday
198,805214287.1996835
1030,1524590982.1435688
2,5, 1, 5, 0,17, 0.00,60.00,Thursday
198,821070457.5893933
1030,1524590982.1435688
2,5, 1, 5, 0,18, 0.00,60.00,Thursday
198,512211302.41246825
1030,1057793295.4182141
2,5, 1, 5, 0,19, 0.00,60.00,Thursday
198,312092162.51627046
1030,941093873.736875
2,5, 1, 5, 0,20, 0.00,60.00,Thursday
198,312092162.51627046
1030,941093873.736875
2,5, 1, 5, 0,21, 0.00,60.00,Thursday
198,208061441.6775136
1030,941093873.736875
2,5, 1, 5, 0,22, 0.00,60.00,Thursday
198,208061441.6775136
1030,941093873.736875
2,5, 1, 5, 0,23, 0.00,60.00,Thursday
198,104030720.8387568
1030,941093873.736875
2,5, 1, 5, 0,24, 0.00,60.00,Thursday
198,52015360.4193784
1030,941093873.736875
2,6, 1, 6, 0, 1, 0.00,60.00,Friday
198,41707937.258317545
1030,836730825.2177298
2,6, 1, 6, 0, 2, 0.00,60.00,Friday
198,36464788.34797145
1030,836730825.2177298
2,6, 1, 6, 0, 3, 0.00,60.00,Friday
198,36464788.34797145
1030,836730825.2177298
2,6, 1, 6, 0, 4, 0.00,60.00,Friday
198,36464788.34797145
1030,836730825.2177298
2,6, 1, 6, 0, 5, 0.00,60.00,Friday
198,36464788.34797145
1030,836730825.2177298
2,6, 1, 6, 0, 6, 0.00,60.00,Friday
198,37975250.63110626
1030,836730825.2177298
2,6, 1, 6, 0, 7, 0.00,60.00,Friday
198,87445560.3280437
1030,941093873.736875
2,6, 1, 6, 0, 8, 0.00,60.00,Friday
198,293844176.1656549
1030,941093873.736875
2,6, 1, 6, 0, 9, 0.00,60.00,Friday
198,807949107.9630295
1030,1524590982.1435688
2,6, 1, 6, 0,10, 0.00,60.00,Friday
198,805214287.1996835
1030,1524590982.1435688
2,6, 1, 6, 0,11, 0.00,60.00,Friday
198,805214287.1996835
1030,1524590982.1435688
2,6, 1, 6, 0,12, 0.00,60.00,Friday
198,805214287.1996835
1030,1524590982.1435688
2,6, 1, 6, 0,13, 0.00,60.00,Friday
198,805214287.1996835
1030,1407891560.4622302
2,6, 1, 6, 0,14, 0.00,60.00,Friday
198,805214287.1996835
1030,1524590982.1435688
2,6, 1, 6, 0,15, 0.00,60.00,Friday
198,805214287.1996835
1030,1524590982.1435688
2,6, 1, 6, 0,16, 0.00,60.00,Friday
198,805214287.1996835
1030,1524590982.1435688
2,6, 1, 6, 0,17, 0.00,60.00,Friday
198,807861322.881766
1030,1524590982.1435688
2,6, 1, 6, 0,18, 0.00,60.00,Friday
198,498297652.7356936
1030,1057793295.4182141
2,6, 1, 6, 0,19, 0.00,60.00,Friday
198,312092162.51627046
1030,941093873.736875
2,6, 1, 6, 0,20, 0.00,60.00,Friday
198,312092162.51627046
1030,941093873.736875
2,6, 1, 6, 0,21, 0.00,60.00,Friday
198,208061441.6775136
1030,941093873.736875
2,6, 1, 6, 0,22, 0.00,60.00,Friday
198,208061441.6775136
1030,941093873.736875
2,6, 1, 6, 0,23, 0.00,60.00,Friday
198,104030720.8387568
1030,941093873.736875
2,6, 1, 6, 0,24, 0.00,60.00,Friday
198,52015360.4193784
1030,941093873.736875
2,7, 1, 7, 0, 1, 0.00,60.00,Saturday
198,41707937.258317545
1030,746122165.6661774
2,7, 1, 7, 0, 2, 0.00,60.00,Saturday
198,36464788.34797145
1030,746122165.6661774
2,7, 1, 7, 0, 3, 0.00,60.00,Saturday
198,36464788.34797145
1030,746122165.6661774
2,7, 1, 7, 0, 4, 0.00,60.00,Saturday
198,36464788.34797145
1030,746122165.6661774
2,7, 1, 7, 0, 5, 0.00,60.00,Saturday
198,36464788.34797145
1030,746122165.6661774
2,7, 1, 7, 0, 6, 0.00,60.00,Saturday
198,36464788.34797145
1030,746122165.6661774
2,7, 1, 7, 0, 7, 0.00,60.00,Saturday
198,87445560.3280437
1030,941093873.736875
2,7, 1, 7, 0, 8, 0.00,60.00,Saturday
198,98102474.16520776
1030,941093873.736875
2,7, 1, 7, 0, 9, 0.00,60.00,Saturday
198,268851792.681601
1030,1057793295.4182141
2,7, 1, 7, 0,10, 0.00,60.00,Saturday
198,268766685.5580965
1030,1057793295.4182141
2,7, 1, 7, 0,11, 0.00,60.00,Saturday
198,268404762.39989462
1030,1057793295.4182141
2,7, 1, 7, 0,12, 0.00,60.00,Saturday
198,268404762.39989462
1030,1057793295.4182141
2,7, 1, 7, 0,13, 0.00,60.00,Saturday
198,134202381.19994731
1030,882744162.8962058
2,7, 1, 7, 0,14, 0.00,60.00,Saturday
198,134202381.19994731
1030,882744162.8962058
2,7, 1, 7, 0,15, 0.00,60.00,Saturday
198,134202381.19994731
1030,882744162.8962058
2,7, 1, 7, 0,16, 0.00,60.00,Saturday
198,134202381.19994731
1030,882744162.8962058
2,7, 1, 7, 0,17, 0.00,60.00,Saturday
198,134455146.2565624
1030,882744162.8962058
2,7, 1, 7, 0,18, 0.00,60.00,Saturday
198,49944792.520486854
1030,824394452.0555365
2,7, 1, 7, 0,19, 0.00,60.00,Saturday
198,52015360.4193784
1030,824394452.0555365
2,7, 1, 7, 0,20, 0.00,60.00,Saturday
198,41707937.258317545
1030,746122165.6661774
2,7, 1, 7, 0,21, 0.00,60.00,Saturday
198,36464788.34797145
1030,746122165.6661774
2,7, 1, 7, 0,22, 0.00,60.00,Saturday
198,36464788.34797145
1030,746122165.6661774
2,7, 1, 7, 0,23, 0.00,60.00,Saturday
198,36464788.34797145
1030,746122165.6661774
2,7, 1, 7, 0,24, 0.00,60.00,Saturday
198,36464788.34797145
1030,746122165.6661774
2,8, 1, 8, 0, 1, 0.00,60.00,Sunday
198,36464788.34797145
1030,746122165.6661774
2,8, 1, 8, 0, 2, 0.00,60.00,Sunday
198,36464788.34797145
1030,746122165.6661774
2,8, 1, 8, 0, 3, 0.00,60.00,Sunday
198,36464788.34797145
1030,746122165.6661774
2,8, 1, 8, 0, 4, 0.00,60.00,Sunday
198,36464788.34797145
1030,746122165.6661774
2,8, 1, 8, 0, 5, 0.00,60.00,Sunday
198,36464788.34797145
1030,746122165.6661774
2,8, 1, 8, 0, 6, 0.00,60.00,Sunday
198,36464788.34797145
1030,746122165.6661774
2,8, 1, 8, 0, 7, 0.00,60.00,Sunday
198,48092070.92212643
1030,824394452.0555365
2,8, 1, 8, 0, 8, 0.00,60.00,Sunday
198,48961314.77343579
1030,824394452.0555365
2,8, 1, 8, 0, 9, 0.00,60.00,Sunday
198,44812512.78205369
1030,824394452.0555365
2,8, 1, 8, 0,10, 0.00,60.00,Sunday
198,44734127.06664909
1030,824394452.0555365
2,8, 1, 8, 0,11, 0.00,60.00,Sunday
198,44734127.06664909
1030,824394452.0555365
2,8, 1, 8, 0,12, 0.00,60.00,Sunday
198,44734127.06664909
1030,824394452.0555365
2,8, 1, 8, 0,13, 0.00,60.00,Sunday
198,44734127.06664909
1030,824394452.0555365
2,8, 1, 8, 0,14, 0.00,60.00,Sunday
198,44734127.06664909
1030,824394452.0555365
2,8, 1, 8, 0,15, 0.00,60.00,Sunday
198,44734127.06664909
1030,824394452.0555365
2,8, 1, 8, 0,16, 0.00,60.00,Sunday
198,44734127.06664909
1030,824394452.0555365
2,8, 1, 8, 0,17, 0.00,60.00,Sunday
198,44808427.76341603
1030,824394452.0555365
2,8, 1, 8, 0,18, 0.00,60.00,Sunday
198,49731597.44089108
1030,824394452.0555365
2,8, 1, 8, 0,19, 0.00,60.00,Sunday
198,41707937.258317545
1030,746122165.6661774
2,8, 1, 8, 0,20, 0.00,60.00,Sunday
198,36464788.34797145
1030,746122165.6661774
2,8, 1, 8, 0,21, 0.00,60.00,Sunday
198,36464788.34797145
1030,746122165.6661774
2,8, 1, 8, 0,22, 0.00,60.00,Sunday
198,36464788.34797145
1030,746122165.6661774
2,8, 1, 8, 0,23, 0.00,60.00,Sunday
198,36464788.34797145
1030,746122165.6661774
2,8, 1, 8, 0,24, 0.00,60.00,Sunday
198,36464788.34797145
1030,746122165.6661774
2,9, 1, 9, 0, 1, 0.00,60.00,Monday
198,36464788.34797145
1030,836730825.2177298
2,9, 1, 9, 0, 2, 0.00,60.00,Monday
198,36464788.34797145
1030,836730825.2177298
2,9, 1, 9, 0, 3, 0.00,60.00,Monday
198,36464788.34797145
1030,836730825.2177298
2,9, 1, 9, 0, 4, 0.00,60.00,Monday
198,36464788.34797145
1030,836730825.2177298
2,9, 1, 9, 0, 5, 0.00,60.00,Monday
198,36464788.34797145
1030,836730825.2177298
2,9, 1, 9, 0, 6, 0.00,60.00,Monday
198,37975250.63110626
1030,836730825.2177298
2,9, 1, 9, 0, 7, 0.00,60.00,Monday
198,87445560.3280437
1030,941093873.736875
2,9, 1, 9, 0, 8, 0.00,60.00,Monday
198,293666422.0926133
1030,941093873.736875
2,9, 1, 9, 0, 9, 0.00,60.00,Monday
198,806830182.846811
1030,1524590982.1435688
2,9, 1, 9, 0,10, 0.00,60.00,Monday
198,805214287.1996835
1030,1524590982.1435688
2,9, 1, 9, 0,11, 0.00,60.00,Monday
198,805214287.1996835
1030,1524590982.1435688
2,9, 1, 9, 0,12, 0.00,60.00,Monday
198,805214287.1996835
1030,1524590982.1435688
2,9, 1, 9, 0,13, 0.00,60.00,Monday
198,805214287.1996835
1030,1407891560.4622302
2,9, 1, 9, 0,14, 0.00,60.00,Monday
198,805214287.1996835
1030,1524590982.1435688
2,9, 1, 9, 0,15, 0.00,60.00,Monday
198,805214287.1996835
1030,1524590982.1435688
2,9, 1, 9, 0,16, 0.00,60.00,Monday
198,805214287.1996835
1030,1524590982.1435688
2,9, 1, 9, 0,17, 0.00,60.00,Monday
198,806761428.4912012
1030,1524590982.1435688
2,9, 1, 9, 0,18, 0.00,60.00,Monday
198,493565490.9447523
1030,1057793295.4182141
2,9, 1, 9, 0,19, 0.00,60.00,Monday
198,312092162.51627046
1030,941093873.736875
2,9, 1, 9, 0,20, 0.00,60.00,Monday
198,312092162.51627046
1030,941093873.736875
2,9, 1, 9, 0,21, 0.00,60.00,Monday
198,208061441.6775136
1030,941093873.736875
2,9, 1, 9, 0,22, 0.00,60.00,Monday
198,208061441.6775136
1030,941093873.736875
2,9, 1, 9, 0,23, 0.00,60.00,Monday
198,104030720.8387568
1030,941093873.736875
2,9, 1, 9, 0,24, 0.00,60.00,Monday
198,52015360.4193784
1030,941093873.736875
2,10, 1,10, 0, 1, 0.00,60.00,Tuesday
198,41707937.258317545
1030,836730825.2177298
2,10, 1,10, 0, 2, 0.00,60.00,Tuesday
198,36464788.34797145
1030,836730825.2177298
2,10, 1,10, 0, 3, 0.00,60.00,Tuesday
198,36464788.34797145
1030,836730825.2177298
2,10, 1,10, 0, 4, 0.00,60.00,Tuesday
198,36464788.34797145
1030,836730825.2177298
2,10, 1,10, 0, 5, 0.00,60.00,Tuesday
198,36464788.34797145
1030,836730825.2177298
2,10, 1,10, 0, 6, 0.00,60.00,Tuesday
198,37975250.63110626
1030,836730825.2177298
2,10, 1,10, 0, 7, 0.00,60.00,Tuesday
198,87445560.3280437
1030,941093873.736875
2,10, 1,10, 0, 8, 0.00,60.00,Tuesday
198,292309576.54043734
1030,941093873.736875
2,10, 1,10, 0, 9, 0.00,60.00,Tuesday
198,806500823.4140128
1030,1524590982.1435688
2,10, 1,10, 0,10, 0.00,60.00,Tuesday
198,805214287.1996835
1030,1524590982.1435688
2,10, 1,10, 0,11, 0.00,60.00,Tuesday
198,805214287.1996835
1030,1524590982.1435688
2,10, 1,10, 0,12, 0.00,60.00,Tuesday
198,805214287.1996835
1030,1524590982.1435688
2,10, 1,10, 0,13, 0.00,60.00,Tuesday
198,805214287.1996835
1030,1407891560.4622302
2,10, 1,10, 0,14, 0.00,60.00,Tuesday
198,805214287.1996835
1030,1524590982.1435688
2,10, 1,10, 0,15, 0.00,60.00,Tuesday
198,805214287.1996835
1030,1524590982.1435688
2,10, 1,10, 0,16, 0.00,60.00,Tuesday
198,805214287.1996835
1030,1524590982.1435688
2,10, 1,10, 0,17, 0.00,60.00,Tuesday
198,808000102.7041246
1030,1524590982.1435688
2,10, 1,10, 0,18, 0.00,60.00,Tuesday
198,493207497.3112374
1030,1057793295.4182141
2,10, 1,10, 0,19, 0.00,60.00,Tuesday
198,312092162.51627046
1030,941093873.736875
2,10, 1,10, 0,20, 0.00,60.00,Tuesday
198,312092162.51627046
1030,941093873.736875
2,10, 1,10, 0,21, 0.00,60.00,Tuesday
198,208061441.6775136
1030,941093873.736875
2,10, 1,10, 0,22, 0.00,60.00,Tuesday
198,208061441.6775136
1030,941093873.736875
2,10, 1,10, 0,23, 0.00,60.00,Tuesday
198,104030720.8387568
1030,941093873.736875
2,10, 1,10, 0,24, 0.00,60.00,Tuesday
198,52015360.4193784
1030,941093873.736875
2,11, 1,11, 0, 1, 0.00,60.00,Wednesday
198,41707937.258317545
1030,836730825.2177298
2,11, 1,11, 0, 2, 0.00,60.00,Wednesday
198,36464788.34797145
1030,836730825.2177298
2,11, 1,11, 0, 3, 0.00,60.00,Wednesday
198,36464788.34797145
1030,836730825.2177298
2,11, 1,11, 0, 4, 0.00,60.00,Wednesday
198,36464788.34797145
1030,836730825.2177298
2,11, 1,11, 0, 5, 0.00,60.00,Wednesday
198,36464788.34797145
1030,836730825.2177298
2,11, 1,11, 0, 6, 0.00,60.00,Wednesday
198,37975250.63110626
1030,836730825.2177298
2,11, 1,11, 0, 7, 0.00,60.00,Wednesday
198,87445560.3280437
1030,941093873.736875
2,11, 1,11, 0, 8, 0.00,60.00,Wednesday
198,292177651.45621824
1030,941093873.736875
2,11, 1,11, 0, 9, 0.00,60.00,Wednesday
198,806376969.0005096
1030,1524590982.1435688
2,11, 1,11, 0,10, 0.00,60.00,Wednesday
198,805214287.1996835
1030,1524590982.1435688
2,11, 1,11, 0,11, 0.00,60.00,Wednesday
198,805214287.1996835
1030,1524590982.1435688
2,11, 1,11, 0,12, 0.00,60.00,Wednesday
198,805214287.1996835
1030,1524590982.1435688
2,11, 1,11, 0,13, 0.00,60.00,Wednesday
198,805214287.1996835
1030,1407891560.4622302
2,11, 1,11, 0,14, 0.00,60.00,Wednesday
198,805214287.1996835
1030,1524590982.1435688
2,11, 1,11, 0,15, 0.00,60.00,Wednesday
198,805214287.1996835
1030,1524590982.1435688
2,11, 1,11, 0,16, 0.00,60.00,Wednesday
198,805214287.1996835
1030,1524590982.1435688
2,11, 1,11, 0,17, 0.00,60.00,Wednesday
198,810347865.0634322
1030,1524590982.1435688
2,11, 1,11, 0,18, 0.00,60.00,Wednesday
198,492902210.69100153
1030,1057793295.4182141
2,11, 1,11, 0,19, 0.00,60.00,Wednesday
198,312092162.51627046
1030,941093873.736875
2,11, 1,11, 0,20, 0.00,60.00,Wednesday
198,312092162.51627046
1030,941093873.736875
2,11, 1,11, 0,21, 0.00,60.00,Wednesday
198,208061441.6775136
1030,941093873.736875
2,11, 1,11, 0,22, 0.00,60.00,Wednesday
198,208061441.6775136
1030,941093873.736875
2,11, 1,11, 0,23, 0.00,60.00,Wednesday
198,104030720.8387568
1030,941093873.736875
2,11, 1,11, 0,24, 0.00,60.00,Wednesday
198,52015360.4193784
1030,941093873.736875
2,12, 1,12, 0, 1, 0.00,60.00,Thursday
198,41707937.258317545
1030,836730825.2177298
2,12, 1,12, 0, 2, 0.00,60.00,Thursday
198,36464788.34797145
1030,836730825.2177298
2,12, 1,12, 0, 3, 0.00,60.00,Thursday
198,36464788.34797145
1030,836730825.2177298
2,12, 1,12, 0, 4, 0.00,60.00,Thursday
198,36464788.34797145
1030,836730825.2177298
2,12, 1,12, 0, 5, 0.00,60.00,Thursday
198,36464788.34797145
1030,836730825.2177298
2,12, 1,12, 0, 6, 0.00,60.00,Thursday
198,37975250.63110626
1030,836730825.2177298
2,12, 1,12, 0, 7, 0.00,60.00,Thursday
198,87445560.3280437
1030,941093873.736875
2,12, 1,12, 0, 8, 0.00,60.00,Thursday
198,296717702.5370209
1030,941093873.736875
2,12, 1,12, 0, 9, 0.00,60.00,Thursday
198,806680332.2702734
1030,1524590982.1435688
2,12, 1,12, 0,10, 0.00,60.00,Thursday
198,805214287.1996835
1030,1524590982.1435688
2,12, 1,12, 0,11, 0.00,60.00,Thursday
198,805214287.1996835
1030,1524590982.1435688
2,12, 1,12, 0,12, 0.00,60.00,Thursday
198,805214287.1996835
1030,1524590982.1435688
2,12, 1,12, 0,13, 0.00,60.00,Thursday
198,805214287.1996835
1030,1407891560.4622302
2,12, 1,12, 0,14, 0.00,60.00,Thursday
198,805214287.1996835
1030,1524590982.1435688
2,12, 1,12, 0,15, 0.00,60.00,Thursday
198,805214287.1996835
1030,1524590982.1435688
2,12, 1,12, 0,16, 0.00,60.00,Thursday
198,805214287.1996835
1030,1524590982.1435688
2,12, 1,12, 0,17, 0.00,60.00,Thursday
198,806224139.7089282
1030,1524590982.1435688
2,12, 1,12, 0,18, 0.00,60.00,Thursday
198,492612162.64395857
1030,1057793295.4182141
2,12, 1,12, 0,19, 0.00,60.00,Thursday
198,312092162.51627046
1030,941093873.736875
2,12, 1,12, 0,20, 0.00,60.00,Thursday
198,312092162.51627046
1030,941093873.736875
2,12, 1,12, 0,21, 0.00,60.00,Thursday
198,208061441.6775136
1030,941093873.736875
2,12, 1,12, 0,22, 0.00,60.00,Thursday
198,208061441.6775136
1030,941093873.736875
2,12, 1,12, 0,23, 0.00,60.00,Thursday
198,104030720.8387568
1030,941093873.736875
2,12, 1,12, 0,24, 0.00,60.00,Thursday
198,52015360.4193784
1030,941093873.736875
2,13, 1,13, 0, 1, 0.00,60.00,Friday
198,41707937.258317545
1030,836730825.2177298
2,13, 1,13, 0, 2, 0.00,60.00,Friday
198,36464788.34797145
1030,836730825.2177298
2,13, 1,13, 0, 3, 0.00,60.00,Friday
198,36464788.34797145
1030,836730825.2177298
2,13, 1,13, 0, 4, 0.00,60.00,Friday
198,36464788.34797145
1030,836730825.2177298
2,13, 1,13, 0, 5, 0.00,60.00,Friday
198,36464788.34797145
1030,836730825.2177298
2,13, 1,13, 0, 6, 0.00,60.00,Friday
198,37975250.63110626
1030,836730825.2177298
2,13, 1,13, 0, 7, 0.00,60.00,Friday
198,87445560.3280437
1030,941093873.736875
2,13, 1,13, 0, 8, 0.00,60.00,Friday
198,293819561.65799475
1030,941093873.736875
2,13, 1,13, 0, 9, 0.00,60.00,Friday
198,806515182.5906665
1030,1524590982.1435688
2,13, 1,13, 0,10, 0.00,60.00,Friday
198,805214287.1996835
1030,1524590982.1435688
2,13, 1,13, 0,11, 0.00,60.00,Friday
198,805214287.1996835
1030,1524590982.1435688
2,13, 1,13, 0,12, 0.00,60.00,Friday
198,805214287.1996835
1030,1524590982.1435688
2,13, 1,13, 0,13, 0.00,60.00,Friday
198,805214287.1996835
1030,1407891560.4622302
2,13, 1,13, 0,14, 0.00,60.00,Friday
198,805214287.1996835
1030,1524590982.1435688
2,13, 1,13, 0,15, 0.00,60.00,Friday
198,805214287.1996835
1030,1524590982.1435688
2,13, 1,13, 0,16, 0.00,60.00,Friday
198,805214287.1996835
1030,1524590982.1435688
2,13, 1,13, 0,17, 0.00,60.00,Friday
198,806563252.1580603
1030,1524590982.1435688
2,13, 1,13, 0,18, 0.00,60.00,Friday
198,492184530.9070419
1030,1057793295.4182141
2,13, 1,13, 0,19, 0.00,60.00,Friday
198,312092162.51627046
1030,941093873.736875
2,13, 1,13, 0,20, 0.00,60.00,Friday
198,312092162.51627046
1030,941093873.736875
2,13, 1,13, 0,21, 0.00,60.00,Friday
198,208061441.6775136
1030,941093873.736875
2,13, 1,13, 0,22, 0.00,60.00,Friday
198,208061441.6775136
1030,941093873.736875
2,13, 1,13, 0,23, 0.00,60.00,Friday
198,104030720.8387568
1030,941093873.736875
2,13, 1,13, 0,24, 0.00,60.00,Friday
198,52015360.4193784
1030,941093873.736875
2,14, 1,14, 0, 1, 0.00,60.00,Saturday
198,41707937.258317545
1030,746122165.6661774
2,14, 1,14, 0, 2, 0.00,60.00,Saturday
198,36464788.34797145
1030,746122165.6661774
2,14, 1,14, 0, 3, 0.00,60.00,Saturday
198,36464788.34797145
1030,746122165.6661774
2,14, 1,14, 0, 4, 0.00,60.00,Saturday
198,36464788.34797145
1030,746122165.6661774
2,14, 1,14, 0, 5, 0.00,60.00,Saturday
198,36464788.34797145
1030,746122165.6661774
2,14, 1,14, 0, 6, 0.00,60.00,Saturday
198,36464788.34797145
1030,746122165.6661774
2,14, 1,14, 0, 7, 0.00,60.00,Saturday
198,87445560.3280437
1030,941093873.736875
2,14, 1,14, 0, 8, 0.00,60.00,Saturday
198,97946462.21359831
1030,941093873.736875
2,14, 1,14, 0, 9, 0.00,60.00,Saturday
198,269287846.4012746
1030,1057793295.4182141
2,14, 1,14, 0,10, 0.00,60.00,Saturday
198,268404762.39989462
1030,1057793295.4182141
2,14, 1,14, 0,11, 0.00,60.00,Saturday
198,268404762.39989462
1030,1057793295.4182141
2,14, 1,14, 0,12, 0.00,60.00,Saturday
198,268404762.39989462
1030,1057793295.4182141
2,14, 1,14, 0,13, 0.00,60.00,Saturday
198,134202381.19994731
1030,882744162.8962058
2,14, 1,14, 0,14, 0.00,60.00,Saturday
198,134202381.19994731
1030,882744162.8962058
2,14, 1,14, 0,15, 0.00,60.00,Saturday
198,134202381.19994731
1030,882744162.8962058
2,14, 1,14, 0,16, 0.00,60.00,Saturday
198,134202381.19994731
1030,882744162.8962058
2,14, 1,14, 0,17, 0.00,60.00,Saturday
198,134617958.7765399
1030,882744162.8962058
2,14, 1,14, 0,18, 0.00,60.00,Saturday
198,49174693.66614913
1030,824394452.0555365
2,14, 1,14, 0,19, 0.00,60.00,Saturday
198,52015360.4193784
1030,824394452.0555365
2,14, 1,14, 0,20, 0.00,60.00,Saturday
198,41707937.258317545
1030,746122165.6661774
2,14, 1,14, 0,21, 0.00,60.00,Saturday
198,36464788.34797145
1030,746122165.6661774
2,14, 1,14, 0,22, 0.00,60.00,Saturday
198,36464788.34797145
1030,746122165.6661774
2,14, 1,14, 0,23, 0.00,60.00,Saturday
198,36464788.34797145
1030,746122165.6661774
2,14, 1,14, 0,24, 0.00,60.00,Saturday
198,36464788.34797145
1030,746122165.6661774
2,15, 1,15, 0, 1, 0.00,60.00,Sunday
198,36464788.34797145
1030,746122165.6661774
2,15, 1,15, 0, 2, 0.00,60.00,Sunday
198,36464788.34797145
1030,746122165.6661774
2,15, 1,15, 0, 3, 0.00,60.00,Sunday
198,36464788.34797145
1030,746122165.6661774
2,15, 1,15, 0, 4, 0.00,60.00,Sunday
198,36464788.34797145
1030,746122165.6661774
2,15, 1,15, 0, 5, 0.00,60.00,Sunday
198,36464788.34797145
1030,746122165.6661774
2,15, 1,15, 0, 6, 0.00,60.00,Sunday
198,36464788.34797145
1030,746122165.6661774
2,15, 1,15, 0, 7, 0.00,60.00,Sunday
198,48092070.92212643
1030,824394452.0555365
2,15, 1,15, 0, 8, 0.00,60.00,Sunday
198,48980509.300117746
1030,824394452.0555365
2,15, 1,15, 0, 9, 0.00,60.00,Sunday
198,44807645.54315896
1030,824394452.0555365
2,15, 1,15, 0,10, 0.00,60.00,Sunday
198,44734127.06664909
1030,824394452.0555365
2,15, 1,15, 0,11, 0.00,60.00,Sunday
198,44734127.06664909
1030,824394452.0555365
2,15, 1,15, 0,12, 0.00,60.00,Sunday
198,44734127.06664909
1030,824394452.0555365
2,15, 1,15, 0,13, 0.00,60.00,Sunday
198,44734127.06664909
1030,824394452.0555365
2,15, 1,15, 0,14, 0.00,60.00,Sunday
198,44734127.06664909
1030,824394452.0555365
2,15, 1,15, 0,15, 0.00,60.00,Sunday
198,44734127.06664909
1030,824394452.0555365
2,15, 1,15, 0,16, 0.00,60.00,Sunday
198,44734127.06664909
1030,824394452.0555365
2,15, 1,15, 0,17, 0.00,60.00,Sunday
198,44790021.841482796
1030,824394452.0555365
2,15, 1,15, 0,18, 0.00,60.00,Sunday
198,49592593.65893772
1030,824394452.0555365
2,15, 1,15, 0,19, 0.00,60.00,Sunday
198,41707937.258317545
1030,746122165.6661774
2,15, 1,15, 0,20, 0.00,60.00,Sunday
198,36464788.34797145
1030,746122165.6661774
2,15, 1,15, 0,21, 0.00,60.00,Sunday
198,36464788.34797145
1030,746122165.6661774
2,15, 1,15, 0,22, 0.00,60.00,Sunday
198,36464788.34797145