Program Version,EnergyPlus, Version 23.2.0-7636e6b3e9, YMD=2024.04.10 01:08
1,5,Environment Title[],Latitude[deg],Longitude[deg],Time Zone[],Elevation[m]
2,8,Day of Simulation[],Month[],Day of Month[],DST Indicator[1=yes 0=no],Hour[],StartMinute[],EndMinute[],DayType
3,5,Cumulative Day of Simulation[],Month[],Day of Month[],DST Indicator[1=yes 0=no],DayType  ! When Daily Report Variables Requested
4,2,Cumulative Days of Simulation[],Month[]  ! When Monthly Report Variables Requested
5,1,Cumulative Days of Simulation[] ! When Run Period Report Variables Requested
6,1,Calendar Year of Simulation[] ! When Annual Report Variables Requested
4041,1,COOLSYS1 CHILLER1,Chiller Part Load Ratio [] !Each Call
4042,1,COOLSYS1 CHILLER1,Chiller Cycling Ratio [] !Each Call
4043,1,COOLSYS1 CHILLER1,Chiller Electricity Rate [W] !Each Call
4081,1,COOLSYS1 CHILLER1,Chiller Evaporator Cooling Rate [W] !Each Call
4107,1,COOLSYS1 CHILLER1,Chiller Evaporator Outlet Temperature [C] !Each Call
4108,1,COOLSYS1 CHILLER1,Chiller Evaporator Mass Flow Rate [kg/s] !Each Call
4134,1,COOLSYS1 CHILLER1,Chiller COP [W/W] !Each Call
4135,1,COOLSYS1 CHILLER1,Chiller Condenser Outlet Temperature [C] !Each Call
4136,1,COOLSYS1 CHILLER1,Chiller Condenser Mass Flow Rate [kg/s] !Each Call
4137,1,COOLSYS1 CHILLER1,Chiller Zone Heat Gain Rate [W] !Each Call
4138,1,COOLSYS1 CHILLER1,Oil Cooler Heat Transfer Rate [W] !Each Call
4139,1,COOLSYS1 CHILLER1,Auxiliary Heat Transfer Rate [W] !Each Call
4140,1,COOLSYS1 CHILLER2,Chiller Part Load Ratio [] !Each Call
4141,1,COOLSYS1 CHILLER2,Chiller Cycling Ratio [] !Each Call
4142,1,COOLSYS1 CHILLER2,Chiller Electricity Rate [W] !Each Call
4144,1,COOLSYS1 CHILLER2,Chiller Evaporator Cooling Rate [W] !Each Call
4146,1,COOLSYS1 CHILLER2,Chiller Evaporator Outlet Temperature [C] !Each Call
4147,1,COOLSYS1 CHILLER2,Chiller Evaporator Mass Flow Rate [kg/s] !Each Call
4149,1,COOLSYS1 CHILLER2,Chiller COP [W/W] !Each Call
4150,1,COOLSYS1 CHILLER2,Chiller Condenser Outlet Temperature [C] !Each Call
4151,1,COOLSYS1 CHILLER2,Chiller Condenser Mass Flow Rate [kg/s] !Each Call
4152,1,COOLSYS1 CHILLER2,Chiller Zone Heat Gain Rate [W] !Each Call
4153,1,COOLSYS1 CHILLER2,Oil Cooler Heat Transfer Rate [W] !Each Call
4154,1,COOLSYS1 CHILLER2,Auxiliary Heat Transfer Rate [W] !Each Call
End of Data Dictionary
1,RUNPERIOD 1,  27.97, -82.53,  -5.00,   6.00
2,1, 1, 1, 0, 1, 0.00,15.00,Holiday
4041,0.025247342382799614
4042,0.10098936953119846
4043,8110.509188144575
4081,26606.08300921603
4107,6.7
4108,28.913994244445345
4134,3.280445455645017
4135,21.311099822585348
4136,54.937259405299514
4137,-2972.1369773428596
4138,3222.641754548218
4139,3222.641754548218
4140,0.0
4141,0.0
4142,500.0
4144,0.0
4146,6.919335277242818
4147,0.0
4149,0.0
4150,21.17506171209284
4151,0.0
4152,500.0
4153,0.0
4154,0.0
2,1, 1, 1, 0, 1,15.00,30.00,Holiday
4041,0.0
4042,0.0
4043,500.0
4081,0.0
4107,6.890799545920599
4108,0.0
4134,0.0
4135,21.17016678812993
4136,0.0
4137,500.0
4138,0.0
4139,0.0
4140,0.0
4141,0.0
4142,500.0
4144,0.0
4146,6.890799545920599
4147,0.0
4149,0.0
4150,21.17016678812993
4151,0.0
4152,500.0
4153,0.0
4154,0.0
2,1, 1, 1, 0, 1,30.00,45.00,Holiday
4041,0.038761269638171995
4042,0.15504507855268798
4043,11983.664223193213
4081,40846.21339710092
4107,6.7
4108,28.913994244445345
4134,3.408491145642003
4135,21.389238914723244
4136,54.937259405299514
4137,-1581.9948865515107
4138,3222.625975155418
4139,3222.625975155418
4140,0.0
4141,0.0
4142,500.0
4144,0.0
4146,7.036741286087398
4147,0.0
4149,0.0
4150,21.180385773913734
4151,0.0
4152,500.0
4153,0.0
4154,0.0
2,1, 1, 1, 0, 1,45.00,60.00,Holiday
4041,0.044182663545119835
4042,0.17673065418047934
4043,13502.47935216583
4081,46556.5504410083
4107,6.7
4108,28.913994244445345
4134,3.448000121069655
4135,21.430004111016682
4136,54.937259405299514
4137,-1061.1028694929191
4138,3222.5916098445614
4139,3222.5916098445614
4140,0.0
4141,0.0
4142,500.0
4144,0.0
4146,7.0838240492452
4147,0.0
4149,0.0
4150,21.191941737547108
4151,0.0
4152,500.0
4153,0.0
4154,0.0
2,1, 1, 1, 0, 2, 0.00,15.00,Holiday
4041,0.012526497677363737
4042,0.05010599070945495
4043,4338.062193652782
4081,13201.930103650646
4107,6.7
4108,28.913994244445345
4134,3.0432781998762017
4135,21.22279510764333
4136,54.937259405299514
4137,-4407.159258610176
4138,3222.700034509391
4139,3222.700034509391
4140,0.0
4141,0.0
4142,500.0
4144,0.0
4146,6.808830083750668
4147,0.0
4149,0.0
4150,21.15529855125992
4151,0.0
4152,500.0
4153,0.0
4154,0.0
2,1, 1, 1, 0, 2,15.00,30.00,Holiday
4041,0.0
4042,0.0
4043,500.0
4081,0.0
4107,6.766145880345165
4108,0.0
4134,0.0
4135,21.14944313771501
4136,0.0
4137,500.0
4138,0.0
4139,0.0
4140,0.0
4141,0.0
4142,500.0
4144,0.0
4146,6.766145880345165
4147,0.0
4149,0.0
4150,21.14944313771501
4151,0.0
4152,500.0
4153,0.0
4154,0.0
2,1, 1, 1, 0, 2,30.00,45.00,Holiday
4041,0.0
4042,0.0
4043,500.0
4081,0.0
4107,6.766145880345165
4108,0.0
4134,0.0
4135,21.14944313771501
4136,0.0
4137,500.0
4138,0.0
4139,0.0
4140,0.0
4141,0.0
4142,500.0
4144,0.0
4146,6.766145880345165
4147,0.0
4149,0.0
4150,21.14944313771501
4151,0.0
4152,500.0
4153,0.0
4154,0.0
2,1, 1, 1, 0, 2,45.00,60.00,Holiday
4041,0.0
4042,0.0
4043,500.0
4081,0.0
4107,6.766145880345165
4108,0.0
4134,0.0
4135,21.14944313771501
4136,0.0
4137,500.0
4138,0.0
4139,0.0
4140,0.0
4141,0.0
4142,500.0
4144,0.0
4146,6.766145880345165
4147,0.0
4149,0.0
4150,21.14944313771501
4151,0.0
4152,500.0
4153,0.0
4154,0.0
2,1, 1, 1, 0, 3, 0.00,15.00,Holiday
4041,0.05896617903380947
4042,0.23586471613523788
4043,17535.9714117297
4081,62132.12616480266
4107,6.7
4108,28.913994244445345
4134,3.543124284705601
4135,21.51692107814655
4136,54.937259405299514
4137,254.2657316805853
4138,3222.5699290006514
4139,3222.5699290006514
4140,0.0
4141,0.0
4142,500.0
4144,0.0
4146,7.212255016636287
4147,0.0
4149,0.0
4150,21.1992049714188
4151,0.0
4152,500.0
4153,0.0
4154,0.0
2,1, 1, 1, 0, 3,15.00,30.00,Holiday
4041,0.051743056903678246
4042,0.20697222761471298
4043,15587.643036586142
4081,54518.17670401597
4107,6.7
4108,28.913994244445345
4134,3.4975253523611625
4135,21.489105479015297
4136,54.937259405299514
4137,-368.9102372551861
4138,3222.5366560305474
4139,3222.5366560305474
4140,0.0
4141,0.0
4142,500.0
4144,0.0
4146,7.149471569274117
4147,0.0
4149,0.0
4150,21.210310912330925
4151,0.0
4152,500.0
4153,0.0
4154,0.0
2,1, 1, 1, 0, 3,30.00,45.00,Holiday
4041,0.0
4042,0.0
4043,500.0
4081,0.0
4107,7.129400833047987
4108,0.0
4134,0.0
4135,21.210480692697473
4136,0.0
4137,500.0
4138,0.0
4139,0.0
4140,0.0
4141,0.0
4142,500.0
4144,0.0
4146,7.129400833047987
4147,0.0
4149,0.0
4150,21.210480692697473
4151,0.0
4152,500.0
4153,0.0
4154,0.0
2,1, 1, 1, 0, 3,45.00,60.00,Holiday
4041,0.0
4042,0.0
4043,500.0
4081,0.0
4107,7.129400833047987
4108,0.0
4134,0.0
4135,21.210480692697473
4136,0.0
4137,500.0
4138,0.0
4139,0.0
4140,0.0
4141,0.0
4142,500.0
4144,0.0
4146,7.129400833047987
4147,0.0
4149,0.0
4150,21.210480692697473
4151,0.0
4152,500.0
4153,0.0
4154,0.0
2,1, 1, 1, 0, 4, 0.00,15.00,Holiday
4041,0.04132469029009529
4042,0.16529876116038117
4043,12706.589112201184
4081,43544.03805881374
4107,6.700000000000001
4108,28.913994244445345
4134,3.4268864503536727
4135,21.41914998319542
4136,54.937259405299514
4137,-1332.592191312222
4138,3222.5780477163407
4139,3222.5780477163407
4140,0.0
4141,0.0
4142,500.0
4144,0.0
4146,7.05898515424609
4147,0.0
4149,0.0
4150,21.19648760955222
4151,0.0
4152,500.0
4153,0.0
4154,0.0
2,1, 1, 1, 0, 4,15.00,30.00,Holiday
4041,0.0
4042,0.0
4043,500.0
4081,0.0
4107,7.048203819412619
4108,0.0
4134,0.0
4135,21.19432978625921
4136,0.0
4137,500.0
4138,0.0
4139,0.0
4140,0.0
4141,0.0
4142,500.0
4144,0.0
4146,7.048203819412619
4147,0.0
4149,0.0
4150,21.19432978625921
4151,0.0
4152,500.0
4153,0.0
4154,0.0
2,1, 1, 1, 0, 4,30.00,45.00,Holiday
4041,0.04964879100943773
4042,0.19859516403775093
4043,15020.426478048368
4081,52306.11779276013
4107,6.7
4108,28.913994244445345
4134,3.482332400428377
4135,21.49881098821662
4136,54.937259405299514
4137,-555.2944037836278
4138,3222.473355399499
4139,3222.473355399499
4140,0.0
4141,0.0
4142,500.0
4144,0.0
4146,7.131231770360932
4147,0.0
4149,0.0
4150,21.231305163999316
4151,0.0
4152,500.0
4153,0.0
4154,0.0
2,1, 1, 1, 0, 4,45.00,60.00,Holiday
4041,0.0548603231593053
4042,0.2194412926372212
4043,16451.34765832596
4081,57784.70080967574
4107,6.7
4108,28.913994244445345
4134,3.5124600129905548
4135,21.568001572611017
4136,54.937259405299514
4137,-91.79994127672398
4138,3222.3478355341076
4139,3222.3478355341076
4140,0.0
4141,0.0
4142,500.0
4144,0.0
4146,7.176406500107398
4147,0.0
4149,0.0
4150,21.27242655959214
4151,0.0
4152,500.0
4153,0.0
4154,0.0
2,1, 1, 1, 0, 5, 0.00,15.00,Holiday
4041,0.033857970200401155
4042,0.13543188080160462
4043,10597.036059398542
4081,35676.24156514569
4107,6.7
4108,28.913994244445345
4134,3.3666245321024766
4135,21.379342816130446
4136,54.937259405299514
4137,-2070.080833490516
4138,3222.5767800739113
4139,3222.5767800739113
4140,0.0
4141,0.0
4142,500.0
4144,0.0
4146,6.9941152089014516
4147,0.0
4149,0.0
4150,21.196912087864284
4151,0.0
4152,500.0
4153,0.0
4154,0.0
2,1, 1, 1, 0, 5,15.00,30.00,Holiday
4041,0.0
4042,0.0
4043,500.0
4081,0.0
4107,6.965443612119285
4108,0.0
4134,0.0
4135,21.18782250307055
4136,0.0
4137,500.0
4138,0.0
4139,0.0
4140,0.0
4141,0.0
4142,500.0
4144,0.0
4146,6.965443612119285
4147,0.0
4149,0.0
4150,21.18782250307055
4151,0.0
4152,500.0
4153,0.0
4154,0.0
2,1, 1, 1, 0, 5,30.00,45.00,Holiday
4041,0.0
4042,0.0
4043,500.0
4081,0.0
4107,6.965443612119285
4108,0.0
4134,0.0
4135,21.18782250307055
4136,0.0
4137,500.0
4138,0.0
4139,0.0
4140,0.0
4141,0.0
4142,500.0
4144,0.0
4146,6.965443612119285
4147,0.0
4149,0.0
4150,21.18782250307055
4151,0.0
4152,500.0
4153,0.0
4154,0.0
2,1, 1, 1, 0, 5,45.00,60.00,Holiday
4041,0.0
4042,0.0
4043,500.0
4081,0.0
4107,6.965443612119285
4108,0.0
4134,0.0
4135,21.18782250307055
4136,0.0
4137,500.0
4138,0.0
4139,0.0
4140,0.0
4141,0.0
4142,500.0
4144,0.0
4146,6.965443612119285
4147,0.0
4149,0.0
4150,21.18782250307055
4151,0.0
4152,500.0
4153,0.0
4154,0.0
2,1, 1, 1, 0, 6, 0.00,15.00,Holiday
4041,0.04959894797580908
4042,0.1983957919032363
4043,14998.754224234484
4081,52261.913519798865
4107,6.7
4108,28.913994244445345
4134,3.484416954799874
4135,21.46662853805824
4136,54.937259405299514
4137,-561.514893463187
4138,3222.5693934518367
4139,3222.5693934518367
4140,0.0
4141,0.0
4142,500.0
4144,0.0
4146,7.130867279948488
4147,0.0
4149,0.0
4150,21.199384117957248
4151,0.0
4152,500.0
4153,0.0
4154,0.0
2,1, 1, 1, 0, 6,15.00,30.00,Holiday
4041,0.04540863663439583
4042,0.18163454653758332
4043,13844.263617059509
4081,47846.610460127784
4107,6.7
4108,28.913994244445345
4134,3.456060342651168
4135,21.444109840120493
4136,54.937259405299514
4137,-945.9345968074413
4138,3222.5692165925693
4139,3222.5692165925693
4140,0.0
4141,0.0
4142,500.0
4144,0.0
4146,7.094461034003993
4147,0.0
4149,0.0
4150,21.199443276374705
4151,0.0
4152,500.0
4153,0.0
4154,0.0
2,1, 1, 1, 0, 6,30.00,45.00,Holiday
4041,0.0
4042,0.0
4043,500.0
4081,0.0
4107,7.085008912937264
4108,0.0
4134,0.0
4135,21.19898498029918
4136,0.0
4137,500.0
4138,0.0
4139,0.0
4140,0.0
4141,0.0
4142,500.0
4144,0.0
4146,7.085008912937264
4147,0.0
4149,0.0
4150,21.19898498029918
4151,0.0
4152,500.0
4153,0.0
4154,0.0
2,1, 1, 1, 0, 6,45.00,60.00,Holiday
4041,0.0
4042,0.0
4043,500.0
4081,0.0
4107,7.085008912937264
4108,0.0
4134,0.0
4135,21.19898498029918
4136,0.0
4137,500.0
4138,0.0
4139,0.0
4140,0.0
4141,0.0
4142,500.0
4144,0.0
4146,7.085008912937264
4147,0.0
4149,0.0
4150,21.19898498029918
4151,0.0
4152,500.0
4153,0.0
4154,0.0
2,1, 1, 1, 0, 7, 0.00,15.00,Holiday
4041,0.045381222579637726
4042,0.1815248903185509
4043,13836.354369781999
4081,47818.05008486495
4107,6.7
4108,28.913994244445345
4134,3.4559717687845226
4135,21.442592668831733
4136,54.937259405299514
4137,-948.559772253182
4138,3222.5733104808482
4139,3222.5733104808482
4140,0.0
4141,0.0
4142,500.0
4144,0.0
4146,7.094225542102405
4147,0.0
4149,0.0
4150,21.198073536254732
4151,0.0
4152,500.0
4153,0.0
4154,0.0
2,1, 1, 1, 0, 7,15.00,30.00,Holiday
4041,0.0
4042,0.0
4043,500.0
4081,0.0
4107,7.09563669891799
4108,0.0
4134,0.0
4135,21.197929197384294
4136,0.0
4137,500.0
4138,0.0
4139,0.0
4140,0.0
4141,0.0
4142,500.0
4144,0.0
4146,7.09563669891799
4147,0.0
4149,0.0
4150,21.197929197384294
4151,0.0
4152,500.0
4153,0.0
4154,0.0
2,1, 1, 1, 0, 7,30.00,45.00,Holiday
4041,0.3559150451990629
4042,1.0
4043,70358.8326152516
4081,373667.50361950666
4107,6.700000000000003
4108,28.913994244445345
4134,5.310882652969248
4135,23.755377501487146
4136,54.937259405299514
4137,8880.526724695228
4138,4440.263362347583
4139,4440.263362347583
4140,0.0
4141,0.0
4142,500.0
4144,0.0
4146,9.783387841386805
4147,0.0
4149,0.0
4150,21.899233252948516
4151,0.0
4152,500.0
4153,0.0
4154,0.0
2,1, 1, 1, 0, 7,45.00,60.00,Holiday
4041,0.4209657070072968
4042,1.0
4043,78063.60542149226
4081,440185.6486761783
4107,6.700000000000001
4108,28.913994244445345
4134,5.6388075633896815
4135,24.797767055188285
4136,54.937259405299514
4137,10364.985081953171
4138,5182.4925409767075
4139,5182.4925409767075
4140,0.0
4141,0.0
4142,500.0
4144,0.0
4146,10.332883946473945
4147,0.0
4149,0.0
4150,22.63120017885377
4151,0.0
4152,500.0
4153,0.0
4154,0.0
2,1, 1, 1, 0, 8, 0.00,15.00,Holiday
4041,0.10753787793274276
4042,0.43015151173097105
4043,30021.140729221006
4081,113057.72012706802
4107,6.7
4108,28.913994244445345
4134,3.765936849195859
4135,22.218429591205368
4136,54.937259405299514
4137,3621.2428256339335
4138,3221.136002797443
4139,3221.136002797443
4140,0.0
4141,0.0
4142,500.0
4144,0.0
4146,7.632247236688225
4147,0.0
4149,0.0
4150,21.639237390088052
4151,0.0
4152,500.0
4153,0.0
4154,0.0
2,1, 1, 1, 0, 8,15.00,30.00,Holiday
4041,0.0
4042,0.0
4043,500.0
4081,0.0
4107,7.215518629427771
4108,0.0
4134,0.0
4135,21.480064779158617
4136,0.0
4137,500.0
4138,0.0
4139,0.0
4140,0.0
4141,0.0
4142,500.0
4144,0.0
4146,7.215518629427771
4147,0.0
4149,0.0
4150,21.480064779158617
4151,0.0
4152,500.0
4153,0.0
4154,0.0
2,1, 1, 1, 0, 8,30.00,45.00,Holiday
4041,0.0
4042,0.0
4043,500.0
4081,0.0
4107,7.215518629427771
4108,0.0
4134,0.0
4135,21.480064779158617
4136,0.0
4137,500.0
4138,0.0
4139,0.0
4140,0.0
4141,0.0
4142,500.0
4144,0.0
4146,7.215518629427771
4147,0.0
4149,0.0
4150,21.480064779158617
4151,0.0
4152,500.0
4153,0.0
4154,0.0
2,1, 1, 1, 0, 8,45.00,60.00,Holiday
4041,0.0
4042,0.0
4043,500.0
4081,0.0
4107,7.215518629427771
4108,0.0
4134,0.0
4135,21.480064779158617
4136,0.0
4137,500.0
4138,0.0
4139,0.0
4140,0.0
4141,0.0
4142,500.0
4144,0.0
4146,7.215518629427771
4147,0.0
4149,0.0
4150,21.480064779158617
4151,0.0
4152,500.0
4153,0.0
4154,0.0
2,1, 1, 1, 0, 9, 0.00,15.00,Holiday
4041,0.04715404237519445
4042,0.1886161695007778
4043,14344.683769970012
4081,49667.025988342255
4107,6.7
4108,28.913994244445345
4134,3.4623995052660606
4135,21.528907129631815
4136,54.937259405299514
4137,-780.3786807018987
4138,3222.3403673626667
4139,3222.3403673626667
4140,0.0
4141,0.0
4142,500.0
4144,0.0
4146,7.109471105867426
4147,0.0
4149,0.0
4150,21.274852344096548
4151,0.0
4152,500.0
4153,0.0
4154,0.0
2,1, 1, 1, 0, 9,15.00,30.00,Holiday
4041,0.042645607106548605
4042,0.17058242842619442
4043,13077.52114549931
4081,44933.952682341485
4107,6.7
4108,28.913994244445345
4134,3.435968650511853
4135,21.434960050653924
4136,54.937259405299514
4137,-1205.8625143115787
4138,3222.5520400928203
4139,3222.5520400928203
4140,0.0
4141,0.0
4142,500.0
4144,0.0
4146,7.070445286443248
4147,0.0
4149,0.0
4150,21.205182082813334
4151,0.0
4152,500.0
4153,0.0
4154,0.0
2,1, 1, 1, 0, 9,30.00,45.00,Holiday
4041,0.0
4042,0.0
4043,500.0
4081,0.0
4107,7.066956081460066
4108,0.0
4134,0.0
4135,21.19912749050467
4136,0.0
4137,500.0
4138,0.0
4139,0.0
4140,0.0
4141,0.0
4142,500.0
4144,0.0
4146,7.066956081460066
4147,0.0
4149,0.0
4150,21.19912749050467
4151,0.0
4152,500.0
4153,0.0
4154,0.0
2,1, 1, 1, 0, 9,45.00,60.00,Holiday
4041,0.0
4042,0.0
4043,500.0
4081,0.0
4107,7.066956081460066
4108,0.0
4134,0.0
4135,21.19912749050467
4136,0.0
4137,500.0
4138,0.0
4139,0.0
4140,0.0
4141,0.0
4142,500.0
4144,0.0
4146,7.066956081460066
4147,0.0
4149,0.0
4150,21.19912749050467
4151,0.0
4152,500.0
4153,0.0
4154,0.0
2,1, 1, 1, 0,10, 0.00,15.00,Holiday
4041,0.026972277795161353
4042,0.10788911118064541
4043,8612.237517059137
4081,28423.91267545122
4107,6.7
4108,28.913994244445345
4134,3.300409750561231
4135,21.319946279525787
4136,54.937259405299514
4137,-2787.1933394694133
4138,3222.643080552598
4139,3222.643080552598
4140,0.0
4141,0.0
4142,500.0
4144,0.0
4146,6.934322278343491
4147,0.0
4149,0.0
4150,21.174613792605037
4151,0.0
4152,500.0
4153,0.0
4154,0.0
2,1, 1, 1, 0,10,15.00,30.00,Holiday
4041,0.3630326140855889
4042,1.0
4043,71219.1477722799
4081,380905.36547075195
4107,6.699999999999999
4108,28.913994244445345
4134,5.348356128729315
4135,23.90332033898784
4136,54.937259405299514
4137,9042.490264860622
4138,4521.245132430316
4139,4521.245132430316
4140,0.0
4141,0.0
4142,500.0
4144,0.0
4146,9.843175193455904
4147,0.0
4149,0.0
4150,22.013303002584873
4151,0.0
4152,500.0
4153,0.0
4154,0.0
2,1, 1, 1, 0,10,30.00,45.00,Holiday
4041,0.4230756653840365
4042,1.0
4043,78342.8243073622
4081,442299.00626042945
4107,6.699999999999999
4108,28.913994244445345
4134,5.645686253601975
4135,24.84506418459052
4136,54.937259405299514
4137,10412.836611355771
4138,5206.4183056779175
4139,5206.4183056779175
4140,0.0
4141,0.0
4142,500.0
4144,0.0
4146,10.350343890016097
4147,0.0
4149,0.0
4150,22.66848725646007
4151,0.0
4152,500.0
4153,0.0
4154,0.0
2,1, 1, 1, 0,10,45.00,60.00,Holiday
4041,0.0
4042,0.0
4043,500.0
4081,0.0
4107,10.359329194954272
4108,0.0
4134,0.0
4135,22.69616946537473
4136,0.0
4137,500.0
4138,0.0
4139,0.0
4140,0.0
4141,0.0
4142,500.0
4144,0.0
4146,10.359329194954272
4147,0.0
4149,0.0
4150,22.69616946537473
4151,0.0
4152,500.0
4153,0.0
4154,0.0
2,1, 1, 1, 0,11, 0.00,15.00,Holiday
4041,0.08542546424912917
4042,0.3417018569965167
4043,24566.761113175944
4081,89820.78796966332
4107,6.7
4108,28.913994244445345
4134,3.6561916955951324
4135,22.076976610134903
4136,54.937259405299514
4137,2278.393567001607
4138,3221.214752221593
4139,3221.214752221593
4140,0.0
4141,0.0
4142,500.0
4144,0.0
4146,7.440593610024293
4147,0.0
4149,0.0
4150,21.61687020566046
4151,0.0
4152,500.0
4153,0.0
4154,0.0
2,1, 1, 1, 0,11,15.00,30.00,Holiday
4041,0.0
4042,0.0
4043,500.0
4081,0.0
4107,6.993706408666381
4108,0.0
4134,0.0
4135,21.45078297526393
4136,0.0
4137,500.0
4138,0.0
4139,0.0
4140,0.0
4141,0.0
4142,500.0
4144,0.0
4146,6.993706408666381
4147,0.0
4149,0.0
4150,21.45078297526393
4151,0.0
4152,500.0
4153,0.0
4154,0.0
2,1, 1, 1, 0,11,30.00,45.00,Holiday
4041,0.03728975941916918
4042,0.1491590376766767
4043,11582.307844125799
4081,39281.43708653629
4107,6.7
4108,28.913994244445345
4134,3.3915034564081856
4135,21.453434304629475
4136,54.937259405299514
4137,-1723.6074065421126
4138,3222.408846494375
4139,3222.408846494375
4140,0.0
4141,0.0
4142,500.0
4144,0.0
4146,7.023839680731008
4147,0.0
4149,0.0
4150,21.252522093381337
4151,0.0
4152,500.0
4153,0.0
4154,0.0
2,1, 1, 1, 0,11,45.00,60.00,Holiday
4041,0.04230941523143823
4042,0.16923766092575293
4043,12982.262284216014
4081,44581.195701450335
4107,6.7
4108,28.913994244445345
4134,3.4340082433593007
4135,21.42649601288484
4136,54.937259405299514
4137,-1238.2176894838558
4138,3222.5719517969005
4139,3222.5719517969005
4140,0.0
4141,0.0
4142,500.0
4144,0.0
4146,7.0675367243570495
4147,0.0
4149,0.0
4150,21.198528209991103
4151,0.0
4152,500.0
4153,0.0
4154,0.0
2,1, 1, 1, 0,12, 0.00,15.00,Holiday
4041,0.016004186832099986
4042,0.06401674732839994
4043,5381.580989492241
4081,16866.762915264106
4107,6.7
4108,28.913994244445345
4134,3.1341650247756476
4135,21.246020456840995
4136,54.937259405299514
4137,-4002.399005068295
4138,3222.686843800826
4139,3222.686843800826
4140,0.0
4141,0.0
4142,500.0
4144,0.0
4146,6.839042526975781
4147,0.0
4149,0.0
4150,21.15978537573768
4151,0.0
4152,500.0
4153,0.0
4154,0.0
2,1, 1, 1, 0,12,15.00,30.00,Holiday
4041,0.0
4042,0.0
4043,500.0
4081,0.0
4107,6.803141595719693
4108,0.0
4134,0.0
4135,21.154399454957716
4136,0.0
4137,500.0
4138,0.0
4139,0.0
4140,0.0
4141,0.0
4142,500.0
4144,0.0
4146,6.803141595719693
4147,0.0
4149,0.0
4150,21.154399454957716
4151,0.0
4152,500.0
4153,0.0
4154,0.0
2,1, 1, 1, 0,12,30.00,45.00,Holiday
4041,0.0
4042,0.0
4043,500.0
4081,0.0
4107,6.803141595719693
4108,0.0
4134,0.0
4135,21.154399454957716
4136,0.0
4137,500.0
4138,0.0
4139,0.0
4140,0.0
4141,0.0
4142,500.0
4144,0.0
4146,6.803141595719693
4147,0.0
4149,0.0
4150,21.154399454957716
4151,0.0
4152,500.0
4153,0.0
4154,0.0
2,1, 1, 1, 0,12,45.00,60.00,Holiday
4041,0.03712636385237202
4042,0.1485054554094881
4043,11520.962300539324
4081,39124.72574709187
4107,6.7
4108,28.913994244445345
4134,3.3959598796066146
4135,21.37342612254635
4136,54.937259405299514
4137,-1743.3449380652237
4138,3222.646728799981
4139,3222.646728799981
4140,0.0
4141,0.0
4142,500.0
4144,0.0
4146,7.0225475993523085
4147,0.0
4149,0.0
4150,21.173381012673993
4151,0.0
4152,500.0
4153,0.0
4154,0.0
2,1, 1, 1, 0,13, 0.00,15.00,Holiday
4041,0.4090916803933074
4042,1.0
4043,76440.96452392206
4081,428394.95060292474
4107,6.7
4108,28.913994244445345
4134,5.6042588325643035
4135,24.47998010028938
4136,54.937259405299514
4137,10096.718302536872
4138,5048.359151268467
4139,5048.359151268467
4140,0.0
4141,0.0
4142,500.0
4144,0.0
4146,10.235475847709358
4147,0.0
4149,0.0
4150,22.36954120131079
4151,0.0
4152,500.0
4153,0.0
4154,0.0
2,1, 1, 1, 0,13,15.00,30.00,Holiday
4041,0.44063307261049833
4042,1.0
4043,81020.87945938377
4081,459250.8878883724
4107,6.6999999999999975
4108,28.913994244445345
4134,5.668302923305067
4135,25.459553452657634
4136,54.937259405299514
4137,10805.4353469552
4138,5402.717673477562
4139,5402.717673477562
4140,0.0
4141,0.0
4142,500.0
4144,0.0
4146,10.490401712432325
4147,0.0
4149,0.0
4150,23.200797241042306
4151,0.0
4152,500.0
4153,0.0
4154,0.0
2,1, 1, 1, 0,13,30.00,45.00,Holiday
4041,0.0
4042,0.0
4043,500.0
4081,0.0
4107,10.45490140256606
4108,0.0
4134,0.0
4135,23.287883870974536
4136,0.0
4137,500.0
4138,0.0
4139,0.0
4140,0.0
4141,0.0
4142,500.0
4144,0.0
4146,10.45490140256606
4147,0.0
4149,0.0
4150,23.287883870974536
4151,0.0
4152,500.0
4153,0.0
4154,0.0
2,1, 1, 1, 0,13,45.00,60.00,Holiday
4041,0.09106916688225915
4042,0.3642766675290366
4043,26090.529625813047
4081,95632.4992662243
4107,6.7
4108,28.913994244445345
4134,3.6654104243100103
4135,22.34884465147208
4136,54.937259405299514
4137,2665.6377650764625
4138,3220.329658527157
4139,3220.329658527157
4140,0.0
4141,0.0
4142,500.0
4144,0.0
4146,7.488525156911357
4147,0.0
4149,0.0
4150,21.858464383539847
4151,0.0
4152,500.0
4153,0.0
4154,0.0
2,1, 1, 1, 0,14, 0.00,15.00,Holiday
4041,0.039647614325258256
4042,0.15859045730103302
4043,12255.98331377046
4081,41756.62359140161
4107,6.7
4108,28.913994244445345
4134,3.407039853300477
4135,21.507229427280713
4136,54.937259405299514
4137,-1490.1879189070096
4138,3222.2823445358963
4139,3222.2823445358963
4140,0.0
4141,0.0
4142,500.0
4144,0.0
4146,7.044247683327967
4147,0.0
4149,0.0
4150,21.293620956351656
4151,0.0
4152,500.0
4153,0.0
4154,0.0
2,1, 1, 1, 0,14,15.00,30.00,Holiday
4041,0.04238667323913908
4042,0.16954669295655633
4043,13005.008450205847
4081,44661.389375410065
4107,6.7
4108,28.913994244445345
4134,3.4341684241430195
4135,21.43237276393168
4136,54.937259405299514
4137,-1230.583501080735
4138,3222.5556121045206
4139,3222.5556121045206
4140,0.0
4141,0.0
4142,500.0
4144,0.0
4146,7.0681979390664065
4147,0.0
4149,0.0
4150,21.203989725067245
4151,0.0
4152,500.0
4153,0.0
4154,0.0
2,1, 1, 1, 0,14,30.00,45.00,Holiday
4041,0.0
4042,0.0
4043,500.0
4081,0.0
4107,7.071632784006913
4108,0.0
4134,0.0
4135,21.19783235346209
4136,0.0
4137,500.0
4138,0.0
4139,0.0
4140,0.0
4141,0.0
4142,500.0
4144,0.0
4146,7.071632784006913
4147,0.0
4149,0.0
4150,21.19783235346209
4151,0.0
4152,500.0
4153,0.0
4154,0.0
2,1, 1, 1, 0,14,45.00,60.00,Holiday
4041,0.012122477068902189
4042,0.048489908275608756
4043,4216.275111842647
4081,12776.103804493821
4107,6.7
4108,28.913994244445345
4134,3.0301874203152406
4135,21.220946999443463
4136,54.937259405299514
4137,-4454.783914278345
4138,3222.699068409115
4139,3222.699068409115
4140,0.0
4141,0.0
4142,500.0
4144,0.0
4146,6.805319661399262
4147,0.0
4149,0.0
4150,21.15562744565208
4151,0.0
4152,500.0
4153,0.0
4154,0.0
2,1, 1, 1, 0,15, 0.00,15.00,Holiday
4041,0.0
4042,0.0
4043,500.0
4081,0.0
4107,6.764544496063457
4108,0.0
4134,0.0
4135,21.149124746976167
4136,0.0
4137,500.0
4138,0.0
4139,0.0
4140,0.0
4141,0.0
4142,500.0
4144,0.0
4146,6.764544496063457
4147,0.0
4149,0.0
4150,21.149124746976167
4151,0.0
4152,500.0
4153,0.0
4154,0.0
2,1, 1, 1, 0,15,15.00,30.00,Holiday
4041,0.0315723922905818
4042,0.1262895691623272
4043,9937.88074587473
4081,33273.255380599185
4107,6.7
4108,28.913994244445345
4134,3.348123833586059
4135,21.334709058614404
4136,54.937259405299514
4137,-2305.244113949979
4138,3222.672696059225
4139,3222.672696059225
4140,0.0
4141,0.0
4142,500.0
4144,0.0
4146,6.974303158806031
4147,0.0
4149,0.0
4150,21.164588756010964
4151,0.0
4152,500.0
4153,0.0
4154,0.0
2,1, 1, 1, 0,15,30.00,45.00,Holiday
4041,0.03754023924472241
4042,0.15016095697888965
4043,11639.029854312515
4081,39559.753400803456
4107,6.7
4108,28.913994244445345
4134,3.3988875272233883
4135,21.38139161717248
4136,54.937259405299514
4137,-1702.140093431015
4138,3222.629737370288
4139,3222.629737370288
4140,0.0
4141,0.0
4142,500.0
4144,0.0
4146,7.0261343950679
4147,0.0
4149,0.0
4150,21.17911741029491
4151,0.0
4152,500.0
4153,0.0
4154,0.0
2,1, 1, 1, 0,15,45.00,60.00,Holiday
4041,0.271469393616884
4042,1.0
4043,61351.86112594247
4081,285640.30124250957
4107,6.700000000000001
4108,28.913994244445345
4134,4.655772392236807
4135,22.929818420015312
4136,54.937259405299514
4137,6939.843247368874
4138,3469.921623684521
4139,3469.921623684521
4140,0.0
4141,0.0
4142,500.0
4144,0.0
4146,9.056442601698077
4147,0.0
4149,0.0
4150,21.479360241528187
4151,0.0
4152,500.0
4153,0.0
4154,0.0
2,1, 1, 1, 0,16, 0.00,15.00,Holiday
4041,0.36177375948931
4042,1.0
4043,71178.68512299759
4081,379438.5118643072
4107,6.699999999999999
4108,28.913994244445345
4134,5.330788440509025
4135,23.967872112745113
4136,54.937259405299514
4137,9012.343939745973
4138,4506.171969873048
4139,4506.171969873048
4140,0.0
4141,0.0
4142,500.0
4144,0.0
4146,9.831058259918255
4147,0.0
4149,0.0
4150,22.0841430415566
4151,0.0
4152,500.0
4153,0.0
4154,0.0
2,1, 1, 1, 0,16,15.00,30.00,Holiday
4041,0.0
4042,0.0
4043,500.0
4081,0.0
4107,9.902134556056478
4108,0.0
4134,0.0
4135,22.103770075382737
4136,0.0
4137,500.0
4138,0.0
4139,0.0
4140,0.0
4141,0.0
4142,500.0
4144,0.0
4146,9.902134556056478
4147,0.0
4149,0.0
4150,22.103770075382737
4151,0.0
4152,500.0
4153,0.0
4154,0.0
2,1, 1, 1, 0,16,30.00,45.00,Holiday
4041,0.0847853731547261
4042,0.3391414926189044
4043,24351.958243428482
4081,89206.78043028286
4107,6.7
4108,28.913994244445345
4134,3.663228210994318
4135,21.945793124214457
4136,54.937259405299514
4137,2226.21639549885
4138,3221.652432676649
4139,3221.652432676649
4140,0.0
4141,0.0
4142,500.0
4144,0.0
4146,7.435529728102235
4147,0.0
4149,0.0
4150,21.489077823193966
4151,0.0
4152,500.0
4153,0.0
4154,0.0
2,1, 1, 1, 0,16,45.00,60.00,Holiday
4041,0.08155477851370597
4042,0.3262191140548239
4043,23455.385769839035
4081,85892.62892882536
4107,6.7
4108,28.913994244445345
4134,3.6619576318916716
4135,21.733850680369066
4136,54.937259405299514
4137,1991.2079970712948
4138,3222.2797396311407
4139,3222.2797396311407
4140,0.0
4141,0.0
4142,500.0
4144,0.0
4146,7.408197353485024
4147,0.0
4149,0.0
4150,21.294460338974197
4151,0.0
4152,500.0
4153,0.0
4154,0.0
2,1, 1, 1, 0,17, 0.00,15.00,Holiday
4041,0.0
4042,0.0
4043,500.0
4081,0.0
4107,7.461836201011064
4108,0.0
4134,0.0
4135,21.278375177537466
4136,0.0
4137,500.0
4138,0.0
4139,0.0
4140,0.0
4141,0.0
4142,500.0
4144,0.0
4146,7.461836201011064
4147,0.0
4149,0.0
4150,21.278375177537466
4151,0.0
4152,500.0
4153,0.0
4154,0.0
2,1, 1, 1, 0,17,15.00,30.00,Holiday
4041,0.0
4042,0.0
4043,500.0
4081,0.0
4107,7.461836201011064
4108,0.0
4134,0.0
4135,21.278375177537466
4136,0.0
4137,500.0
4138,0.0
4139,0.0
4140,0.0
4141,0.0
4142,500.0
4144,0.0
4146,7.461836201011064
4147,0.0
4149,0.0
4150,21.278375177537466
4151,0.0
4152,500.0
4153,0.0
4154,0.0
2,1, 1, 1, 0,17,30.00,45.00,Holiday
4041,0.0
4042,0.0
4043,500.0
4081,0.0
4107,7.461836201011064
4108,0.0
4134,0.0
4135,21.278375177537466
4136,0.0
4137,500.0
4138,0.0
4139,0.0
4140,0.0
4141,0.0
4142,500.0
4144,0.0
4146,7.461836201011064
4147,0.0
4149,0.0
4150,21.278375177537466
4151,0.0
4152,500.0
4153,0.0
4154,0.0
2,1, 1, 1, 0,17,45.00,60.00,Holiday
4041,0.07670469291739526
4042,0.30681877166958105
4043,22205.349705334174
4081,80797.98482990182
4107,6.7
4108,28.913994244445345
4134,3.6386720273309865
4135,21.674626132947793
4136,54.937259405299514
4137,1644.596261556435
4138,3222.3818319172333
4139,3222.3818319172333
4140,0.0
4141,0.0
4142,500.0
4144,0.0
4146,7.366181923084248
4147,0.0
4149,0.0
4150,21.261354673585092
4151,0.0
4152,500.0
4153,0.0
4154,0.0
2,1, 1, 1, 0,18, 0.00,15.00,Holiday
4041,0.05272268035438666
4042,0.21089072141754664
4043,15858.505767224107
4081,55546.061565303666
4107,6.7
4108,28.913994244445345
4134,3.502603737112776
4135,21.509842997040472
4136,54.937259405299514
4137,-281.36566508705437
4138,3222.490084285558
4139,3222.490084285558
4140,0.0
4141,0.0
4142,500.0
4144,0.0
4146,7.1579471955879725
4147,0.0
4149,0.0
4150,21.225773847929474
4151,0.0
4152,500.0
4153,0.0
4154,0.0
2,1, 1, 1, 0,18,15.00,30.00,Holiday
4041,0.0
4042,0.0
4043,500.0
4081,0.0
4107,7.128306793105188
4108,0.0
4134,0.0
4135,21.22036220524678
4136,0.0
4137,500.0
4138,0.0
4139,0.0
4140,0.0
4141,0.0
4142,500.0
4144,0.0
4146,7.128306793105188
4147,0.0
4149,0.0
4150,21.22036220524678
4151,0.0
4152,500.0
4153,0.0
4154,0.0
2,1, 1, 1, 0,18,30.00,45.00,Holiday
4041,0.4009859504096625
4042,1.0
4043,75983.07023660358
4081,419201.15235192515
4107,6.699999999999999
4108,28.913994244445345
4134,5.517033610863252